 VARIABLES = "X","Y","UA","VA","PA","VT","UMAG"
 ZONE I=         132 ,J=         172 ,F=POINT
   5.0000000000000003E-002   2.5000000000000001E-002   3.5299538983988882E-002  -3.5335224303070477E-002   6189.8897193533167        0.0000000000000000        4.9946326481839019E-002
  0.15500000000000000        2.5000000000000001E-002  0.10743986221171636       -3.4108011015525200E-002   6189.8841400195543        0.0000000000000000       0.11272391231459182     
  0.27050000000000002        2.5000000000000001E-002  0.18105379633382007       -3.1964131029682395E-002   6189.8713646822571        0.0000000000000000       0.18385369955312594     
  0.39755000000000001        2.5000000000000001E-002  0.25268859974568220       -2.9025158434955112E-002   6189.8491279013815        0.0000000000000000       0.25435012927774936     
  0.53730500000000003        2.5000000000000001E-002  0.31851833329389290       -2.5438211035970944E-002   6189.8145147706364        0.0000000000000000       0.31953251982392972     
  0.69103550000000002        2.5000000000000001E-002  0.37478006476896997       -2.1456891042061648E-002   6189.7637985612155        0.0000000000000000       0.37539378673790574     
  0.86013905000000002        2.5000000000000001E-002  0.41868717124471544       -1.7472301611169878E-002   6189.6922610405663        0.0000000000000000       0.41905158237201939     
   1.0461529500000000        2.5000000000000001E-002  0.44963184177777343       -1.3963645067499962E-002   6189.5941706023468        0.0000000000000000       0.44984861511851271     
   1.2507682500000001        2.5000000000000001E-002  0.46814472039133531       -1.0859260046189322E-002   6189.4631576296624        0.0000000000000000       0.46827065118265981     
   1.4758450999999999        2.5000000000000001E-002  0.48158431777079325       -9.7624950750682497E-003   6189.2946641334056        0.0000000000000000       0.48168325841039056     
   1.7234296000000000        2.5000000000000001E-002  0.50639139854904736       -1.0801375176530468E-002   6189.0816398791512        0.0000000000000000       0.50650658261286619     
   1.9957725499999999        2.5000000000000001E-002  0.55220611614927106       -1.1950347585925144E-002   6188.8110378711708        0.0000000000000000       0.55233541034419176     
   2.2953498000000003        2.5000000000000001E-002  0.61835884169399624       -1.2858359832262318E-002   6188.4681758638553        0.0000000000000000       0.61849251775483638     
   2.6248847500000001        2.5000000000000001E-002  0.69974817110592058       -1.3061339561600731E-002   6188.0327003517086        0.0000000000000000       0.69987006048067535     
   2.9873732500000001        2.5000000000000001E-002  0.79756782464678255       -1.3931606514503224E-002   6187.4840047345888        0.0000000000000000       0.79768949132596434     
   3.3861106000000003        2.5000000000000001E-002  0.92005835261089164       -1.5068524374205083E-002   6186.7915089829412        0.0000000000000000       0.92018173891676625     
   3.8247216499999999        2.5000000000000001E-002   1.0616810971801183       -1.5058592677817818E-002   6185.8730990219346        0.0000000000000000        1.0617878852779477     
   4.3071938000000003        2.5000000000000001E-002   1.2207157326032902       -1.5690590987156805E-002   6184.6039623903489        0.0000000000000000        1.2208165687238661     
   4.8379131500000003        2.5000000000000001E-002   1.4438053614313904       -1.9978789934361474E-002   6182.7638690738486        0.0000000000000000        1.4439435839897863     
   5.4217044500000000        2.5000000000000001E-002   1.7600092826089990       -2.2891930924630606E-002   6179.8543644051570        0.0000000000000000        1.7601581506703601     
   6.0638749000000001        2.5000000000000001E-002   2.1790915204465096       -2.7032913777950071E-002   6174.9048297663194        0.0000000000000000        2.1792591936043788     
   6.7702624000000000        2.5000000000000001E-002   2.7392688187075942       -3.1922887065437514E-002   6166.5725932161031        0.0000000000000000        2.7394548238403735     
   7.5472886500000005        2.5000000000000001E-002   3.0635608616060019       -1.0644047662808567E-002   6153.2998108626844        0.0000000000000000        3.0635793524103070     
   8.4020175500000001        2.5000000000000001E-002   2.2602816318913246        3.8139837892495435E-002   6144.1103431732490        0.0000000000000000        2.2606033934991285     
   9.3422193000000000        2.5000000000000001E-002  0.72428384503152832        3.4765214759939864E-002   6140.3183187918439        0.0000000000000000       0.72511772032612720     
   10.334705950000000        2.5000000000000001E-002 -0.92567756020712921        4.8060500005988369E-002   6135.3999650081787        0.0000000000000000       0.92692435351103430     
   11.334706000000001        2.5000000000000001E-002  -2.8002920549569845        5.3556274844908817E-002   6131.5670782733287        0.0000000000000000        2.8008041466033418     
   12.334706000000001        2.5000000000000001E-002  -4.5230629192070300        4.7400285639231800E-002   6132.3296806081780        0.0000000000000000        4.5233112824770636     
   13.334706000000001        2.5000000000000001E-002  -5.2377981011166010        6.8018632523319982E-003   6160.6134051390864        0.0000000000000000        5.2378025176026224     
   14.334706000000001        2.5000000000000001E-002  -4.3369439515755559       -3.4978430437108333E-002   6207.7393299297073        0.0000000000000000        4.3370850037442938     
   15.334706000000001        2.5000000000000001E-002  -2.0383803544421166       -6.9575682713179474E-002   6249.0493712799253        0.0000000000000000        2.0395674161450446     
   16.334706000000001        2.5000000000000001E-002   1.3139215720758575       -9.7235303112508928E-002   6266.8278665156340        0.0000000000000000        1.3175145546587614     
   17.334706000000001        2.5000000000000001E-002   5.2510853580442944      -0.10970978214350448        6254.0637791540667        0.0000000000000000        5.2522313042901256     
   18.334706000000001        2.5000000000000001E-002   9.1970237766085532      -0.10819806644823329        6210.1476626950644        0.0000000000000000        9.1976602007840125     
   19.334706000000001        2.5000000000000001E-002   12.806351140349577      -0.10185940816202629        6136.4548130496596        0.0000000000000000        12.806756219627358     
   20.334706000000001        2.5000000000000001E-002   16.016947329546433       -9.5406851679611659E-002   6036.3804289633099        0.0000000000000000        16.017231478155391     
   21.334706000000001        2.5000000000000001E-002   18.876209428853681       -8.9847010025228005E-002   5914.0397706471749        0.0000000000000000        18.876423254609307     
   22.334706000000001        2.5000000000000001E-002   21.446721131583566       -8.5277571082568240E-002   5772.9731231907863        0.0000000000000000        21.446890673476258     
   23.334706000000001        2.5000000000000001E-002   23.784853629634235       -8.1584678673479266E-002   5615.7512626358239        0.0000000000000000        23.784993551458431     
   24.334706000000001        2.5000000000000001E-002   25.935795695567990       -7.8550104834253676E-002   5444.1372997339395        0.0000000000000000        25.935914645163617     
   25.334706000000001        2.5000000000000001E-002   27.932796946608939       -7.5962342210979319E-002   5259.3975689229610        0.0000000000000000        27.932900234990274     
   26.334706000000001        2.5000000000000001E-002   29.798968250324322       -7.3645514577497531E-002   5062.5692968347830        0.0000000000000000        29.799059254373358     
   27.334706000000001        2.5000000000000001E-002   31.549295979658211       -7.1453850630175453E-002   4854.6457997190582        0.0000000000000000        31.549376895033088     
   28.334706000000001        2.5000000000000001E-002   33.192190093923500       -6.9263623721491085E-002   4636.6996410887386        0.0000000000000000        33.192262361591510     
   29.334706000000001        2.5000000000000001E-002   34.730676438652580       -6.6970068912834940E-002   4409.9686244170407        0.0000000000000000        34.730741006729289     
   30.334706000000001        2.5000000000000001E-002   36.163425542933922       -6.4487180147017334E-002   4175.9164967783099        0.0000000000000000        36.163483040157082     
   31.334706000000001        2.5000000000000001E-002   37.485721271595217       -6.1748686672804864E-002   3936.2712091249132        0.0000000000000000        37.485772129596477     
   32.334705999999997        2.5000000000000001E-002   38.690427214327272       -5.8710233955360028E-002   3693.0385883781491        0.0000000000000000        38.690471758802936     
   33.334705999999997        2.5000000000000001E-002   39.768982043567476       -5.5351321727649096E-002   3448.4868080567621        0.0000000000000000        39.769020563126887     
   34.334705999999997        2.5000000000000001E-002   40.712429689588575       -5.1676837153761077E-002   3205.0978665863413        0.0000000000000000        40.712462486629221     
   35.334705999999997        2.5000000000000001E-002   41.512455927684663       -4.7717674567072391E-002   2965.4851968304197        0.0000000000000000        41.512483352895522     
   36.334705999999997        2.5000000000000001E-002   42.162373584879077       -4.3529325624433929E-002   2732.2820090229916        0.0000000000000000        42.162396055170994     
   37.334705999999997        2.5000000000000001E-002   42.657961009022102       -3.9186856063564555E-002   2508.0101041059420        0.0000000000000000        42.657979008116854     
   38.334705999999997        2.5000000000000001E-002   42.998012608916795       -3.4775995851808454E-002   2294.9442902367950        0.0000000000000000        42.998026672005018     
   39.334705999999997        2.5000000000000001E-002   43.184543126071802       -3.0385010110929603E-002   2094.9907501908206        0.0000000000000000        43.184553815645643     
   40.334705999999997        2.5000000000000001E-002   43.222605939786682       -2.6093286085652694E-002   1909.5948266791047        0.0000000000000000        43.222613815983664     
   41.334705999999997        2.5000000000000001E-002   43.119726302974300       -2.1962590186762894E-002   1739.6934323852929        0.0000000000000000        43.119731896183929     
   42.334705999999997        2.5000000000000001E-002   42.885086422240619       -1.8032255416561213E-002   1585.7159451659199        0.0000000000000000        42.885090213328013     
   43.334705999999997        2.5000000000000001E-002   42.528498856874720       -1.4312401336690660E-002   1447.6328088632390        0.0000000000000000        42.528501265198919     
   44.334705999999997        2.5000000000000001E-002   42.059085148638886       -1.0774681084678767E-002   1325.0397548990898        0.0000000000000000        42.059086528765796     
   45.334705999999997        2.5000000000000001E-002   41.483745814620448       -7.3495742206237096E-003   1217.2637117471309        0.0000000000000000        41.483746465673526     
   46.334705999999997        2.5000000000000001E-002   40.805598868398732       -3.9262593607603613E-003   1123.4498544551627        0.0000000000000000        40.805599057288404     
   47.334705999999997        2.5000000000000001E-002   40.024062858707026       -4.3464615881383867E-004   1042.6063973873966        0.0000000000000000        40.024062861067073     
   48.334705999999997        2.5000000000000001E-002   39.136673346684788        3.1485547877701608E-003   973.57948999950474        0.0000000000000000        39.136673473335783     
   49.334705999999997        2.5000000000000001E-002   38.140980749915883        6.7995864071203858E-003   915.26308868158344        0.0000000000000000        38.140981356014287     
   50.334705999999997        2.5000000000000001E-002   37.031770885206811        1.0682023024080733E-002   866.42862319264952        0.0000000000000000        37.031772425851656     
   51.334705999999997        2.5000000000000001E-002   35.800311550011187        1.4812744624083912E-002   825.22543826478659        0.0000000000000000        35.800314614473258     
   52.334705999999997        2.5000000000000001E-002   34.438825929127461        1.9132586561705640E-002   788.95154790908373        0.0000000000000000        34.438831243708179     
   53.334705999999997        2.5000000000000001E-002   32.969184715267403        2.2208995056995032E-002   755.29530161628179        0.0000000000000000        32.969192195576817     
   54.334705999999997        2.5000000000000001E-002   31.421343074970146        2.5044058819592239E-002   722.73484686325344        0.0000000000000000        31.421353055523507     
   55.334705999999997        2.5000000000000001E-002   29.835550954540064        2.6088310287638451E-002   690.23060868090397        0.0000000000000000        29.835562360392842     
   56.334705999999997        2.5000000000000001E-002   28.248714385501941        2.7024914530798326E-002   658.53683786996908        0.0000000000000000        28.248727312565247     
   57.334705999999997        2.5000000000000001E-002   26.690942340710748        2.6483794539190628E-002   629.12821449259536        0.0000000000000000        26.690955479834720     
   58.334705999999997        2.5000000000000001E-002   25.210482165999174        2.4898390312604227E-002   602.63971988066385        0.0000000000000000        25.210494461077168     
   59.334705999999997        2.5000000000000001E-002   23.821541172310749        2.3516216693772806E-002   579.67767018221650        0.0000000000000000        23.821552779710721     
   60.334705999999997        2.5000000000000001E-002   22.559249982937970        2.0029629661948274E-002   562.91211112186613        0.0000000000000000        22.559258874766947     
   61.334705999999997        2.5000000000000001E-002   21.479291733460734        1.5688495117140096E-002   554.10513610604778        0.0000000000000000        21.479297462905848     
   62.334705999999997        2.5000000000000001E-002   20.582686319143612        1.1961421959207878E-002   551.13402442754000        0.0000000000000000        20.582689794773589     
   63.334705999999997        2.5000000000000001E-002   19.834143419132246        9.2178833091124662E-003   553.22708736664140        0.0000000000000000        19.834145561129670     
   64.334705999999997        2.5000000000000001E-002   19.216100699203004        6.2306422747736923E-003   560.46591360134539        0.0000000000000000        19.216101709316938     
   65.334705999999997        2.5000000000000001E-002   18.738461523139470        2.8630894290728177E-003   572.97304968390085        0.0000000000000000        18.738461741868235     
   66.334705999999997        2.5000000000000001E-002   18.406080557047041       -4.9552362549957444E-004   587.99987077590924        0.0000000000000000        18.406080563717218     
   67.334705999999997        2.5000000000000001E-002   18.212765534950581       -3.6759014898831263E-003   603.00487464255809        0.0000000000000000        18.212765905906096     
   68.334705999999997        2.5000000000000001E-002   18.125907467819250       -5.5068411105318668E-003   614.46677939929077        0.0000000000000000        18.125908304337322     
   69.334705999999997        2.5000000000000001E-002   18.117360256881241       -7.3561056332830848E-003   620.74090707731762        0.0000000000000000        18.117361750263477     
   70.334705999999997        2.5000000000000001E-002   18.193321020854405       -9.5618826368177555E-003   621.89056371316769        0.0000000000000000        18.193323533578528     
   71.334705999999997        2.5000000000000001E-002   18.339262618253080       -1.0744169273255519E-002   617.29714455657268        0.0000000000000000        18.339265765521482     
   72.334705999999997        2.5000000000000001E-002   18.539365256879179       -1.2205304883218365E-002   605.21511254193751        0.0000000000000000        18.539369274531595     
   73.334705999999997        2.5000000000000001E-002   18.804676596779160       -1.3982700314449889E-002   585.55100677559335        0.0000000000000000        18.804681795376435     
   74.334705999999997        2.5000000000000001E-002   19.134095389360219       -1.5433173469001523E-002   558.37430010169112        0.0000000000000000        19.134101613401640     
   75.334705999999997        2.5000000000000001E-002   19.512501390623804       -1.6491813964986998E-002   522.80442620525650        0.0000000000000000        19.512508359998815     
   76.334705999999997        2.5000000000000001E-002   19.920266778611015       -1.6985232140394858E-002   478.20577722206025        0.0000000000000000        19.920274019931163     
   77.334705999999997        2.5000000000000001E-002   20.335494497472446       -1.6958886025876439E-002   425.85233865871629        0.0000000000000000        20.335501568944579     
   78.334705999999997        2.5000000000000001E-002   20.754055372489482       -1.7246943704386297E-002   367.14660196269529        0.0000000000000000        20.754062538727847     
   79.334705999999997        2.5000000000000001E-002   21.192570334212732       -1.8056638634839126E-002   304.34873470592788        0.0000000000000000        21.192578026581671     
   80.334705999999997        2.5000000000000001E-002   21.637966743205290       -1.7697047595522090E-002   238.04366449294326        0.0000000000000000        21.637973980147766     
   81.334705999999997        2.5000000000000001E-002   22.051528804484796       -1.6560742520447549E-002   167.15789918475312        0.0000000000000000        22.051535023059404     
   82.334705999999997        2.5000000000000001E-002   22.405393738483127       -1.4777812669319572E-002   91.433916469934104        0.0000000000000000        22.405398611946321     
   83.334705999999997        2.5000000000000001E-002   22.696229106723109       -1.3436328993099395E-002   12.588239318048835        0.0000000000000000        22.696233083923907     
   84.334705999999997        2.5000000000000001E-002   22.932231155016051       -1.2027469409790525E-002  -67.853645484002868        0.0000000000000000        22.932234309092284     
   85.334705999999997        2.5000000000000001E-002   23.109190243160640       -1.0442215395745287E-002  -148.73521292559704        0.0000000000000000        23.109192602392088     
   86.334705999999997        2.5000000000000001E-002   23.195081390450373       -7.3894815800075704E-003  -228.61549931044578        0.0000000000000000        23.195082567519677     
   87.334705999999997        2.5000000000000001E-002   23.166608398866224       -4.5823330120137494E-003  -305.49033638700649        0.0000000000000000        23.166608852056765     
   88.334705999999997        2.5000000000000001E-002   23.005234381266863       -5.3569923795601692E-004  -377.54811822862854        0.0000000000000000        23.005234387504000     
   89.334705999999997        2.5000000000000001E-002   22.713286304492541        2.2244992151203629E-003  -442.59360856009630        0.0000000000000000        22.713286413424306     
   90.334705999999997        2.5000000000000001E-002   22.264792166741621        7.6433472589406241E-003  -499.89281870394063        0.0000000000000000        22.264793478695381     
   91.334705999999997        2.5000000000000001E-002   21.608215692301172        1.3072825640982890E-002  -546.13004055531553        0.0000000000000000        21.608219646786750     
   92.334705999999997        2.5000000000000001E-002   20.744724431250837        1.8536533799776052E-002  -578.37659381597700        0.0000000000000000        20.744732712947176     
   93.334705999999997        2.5000000000000001E-002   19.617740009642084        2.6909679942982333E-002  -596.62226890780801        0.0000000000000000        19.617758465655204     
   94.334705999999997        2.5000000000000001E-002   18.145272320783882        3.6620864107854693E-002  -598.95945162100793        0.0000000000000000        18.145309274936420     
   95.334705999999997        2.5000000000000001E-002   16.249011714809793        4.9095037521936051E-002  -585.90000796667516        0.0000000000000000        16.249085882926927     
   96.334705999999997        2.5000000000000001E-002   13.877323877054360        6.1601614401895266E-002  -559.13341915726505        0.0000000000000000        13.877460601549549     
   97.334705999999997        2.5000000000000001E-002   11.146313299224083        6.8461213672178473E-002  -521.23805643336664        0.0000000000000000        11.146523543340189     
   98.334705999999997        2.5000000000000001E-002   8.3033507501578221        6.8691332858398763E-002  -479.29946605636070        0.0000000000000000        8.3036348775314259     
   99.334705999999997        2.5000000000000001E-002   5.5817312195742890        6.3853852619026777E-002  -442.74662031149671        0.0000000000000000        5.5820964450701291     
   100.33470800000001        2.5000000000000001E-002   3.2981471055644893        4.8080172237875272E-002  -412.58960648976961        0.0000000000000000        3.2984975417462179     
   101.33471000000000        2.5000000000000001E-002   1.7831825589713712        2.6389250799902727E-002  -380.48836373529940        0.0000000000000000        1.7833778150401747     
   102.33471000000000        2.5000000000000001E-002  0.83653098277032945        2.0283586121030556E-002  -347.74567785719222        0.0000000000000000       0.83677685735243812     
   103.33471000000000        2.5000000000000001E-002  -6.6947985544611344E-002   2.4688105367478001E-002  -317.74460403406243        0.0000000000000000        7.1354995025696602E-002
   104.33471000000000        2.5000000000000001E-002 -0.88979044339407565        1.6670621514424919E-002  -284.82981436453690        0.0000000000000000       0.88994659546351595     
   105.33471000000000        2.5000000000000001E-002  -1.1601442665059944       -2.6759422501964796E-003  -239.66035094921867        0.0000000000000000        1.1601473526124422     
   106.33471000000000        2.5000000000000001E-002  -1.0302470950860654       -3.3117456597802943E-003  -194.26509343342687        0.0000000000000000        1.0302524179018417     
   107.33471000000000        2.5000000000000001E-002 -0.92132015142652124       -1.6870796917860076E-003  -159.94789918307794        0.0000000000000000       0.92132169607714898     
   108.33471000000000        2.5000000000000001E-002 -0.82459709182406016       -2.7524237798315855E-003  -125.13787034441593        0.0000000000000000       0.82460168547084678     
   109.33471000000000        2.5000000000000001E-002 -0.75417803483363621       -4.1301805333227113E-004  -97.114435835496550        0.0000000000000000       0.75417814792622950     
   110.33471000000000        2.5000000000000001E-002 -0.49156956725138889       -1.2439838543364067E-002  -59.796205863566023        0.0000000000000000       0.49172694560162422     
   111.33471000000000        2.5000000000000001E-002  -4.9330093397036243E-002  -9.5550134570934597E-003  -28.250470718990982        0.0000000000000000        5.0246954103960927E-002
   112.33471000000000        2.5000000000000001E-002  0.36958485343415048       -1.1466353130151359E-002   2.2456824732208824        0.0000000000000000       0.36976268219230535     
   113.33471000000000        2.5000000000000001E-002  0.65405761337823298       -2.9873986396984839E-003   19.687792182871963        0.0000000000000000       0.65406443579257734     
   114.33471000000000        2.5000000000000001E-002   1.0865270579556423       -1.9020682883907750E-002   29.686241684871547        0.0000000000000000        1.0866935327161535     
   115.33471000000000        2.5000000000000001E-002   2.0112865894491296       -2.7892786962208860E-002   29.227720672866116        0.0000000000000000        2.0114799905697374     
   116.33471000000000        2.5000000000000001E-002   3.7191992063093888       -5.8739216571402228E-002   30.172069944878018        0.0000000000000000        3.7196630266431137     
   5.0000000000000003E-002   7.7499999999999999E-002   2.1519308731038207E-002  -9.4349658468269287E-002   6189.8833647782276        0.0000000000000000        9.6772613384886921E-002
  0.15500000000000000        7.7499999999999999E-002   6.7651754223669036E-002  -9.2528305140137740E-002   6189.8778188089582        0.0000000000000000       0.11462219288447661     
  0.27050000000000002        7.7499999999999999E-002  0.12094983766450221       -8.9265431397628270E-002   6189.8651160352465        0.0000000000000000       0.15032358588616132     
  0.39755000000000001        7.7499999999999999E-002  0.18323780122353894       -8.4612600605547386E-002   6189.8429973518960        0.0000000000000000       0.20183008690101445     
  0.53730500000000003        7.7499999999999999E-002  0.25598750615632321       -7.8684623125971992E-002   6189.8085525776232        0.0000000000000000       0.26780753018653125     
  0.69103550000000002        7.7499999999999999E-002  0.34001380842835549       -7.1772387872927432E-002   6189.7580555632403        0.0000000000000000       0.34750635329866469     
  0.86013905000000002        7.7499999999999999E-002  0.43539195439315431       -6.4544100589029929E-002   6189.6867962660608        0.0000000000000000       0.44015008221189439     
   1.0461529500000000        7.7499999999999999E-002  0.54096619623579878       -5.7693343369721831E-002   6189.5889452673964        0.0000000000000000       0.54403395789142195     
   1.2507682500000001        7.7499999999999999E-002  0.65605705062891340       -5.1542482403216891E-002   6189.4568450424513        0.0000000000000000       0.65807862841167730     
   1.4758450999999999        7.7499999999999999E-002  0.78008082662639944       -4.8992785620666404E-002   6189.2808786188307        0.0000000000000000       0.78161780245398660     
   1.7234296000000000        7.7499999999999999E-002  0.91140011719868941       -5.0419937011962679E-002   6189.0528574199461        0.0000000000000000       0.91279370269413840     
   1.9957725499999999        7.7499999999999999E-002   1.0474413597616605       -5.1584065351356713E-002   6188.7610959378289        0.0000000000000000        1.0487107885101257     
   2.2953498000000003        7.7499999999999999E-002   1.1866576099533117       -5.2287694832141407E-002   6188.3903011457369        0.0000000000000000        1.1878090277022502     
   2.6248847500000001        7.7499999999999999E-002   1.3273660797475986       -5.1217444128096395E-002   6187.9186612059148        0.0000000000000000        1.3283538445186669     
   2.9873732500000001        7.7499999999999999E-002   1.4730886892986406       -5.2359413038490739E-002   6187.3214366124776        0.0000000000000000        1.4740189261584540     
   3.3861106000000003        7.7499999999999999E-002   1.6226078055083710       -5.3061625300793808E-002   6186.5599448105722        0.0000000000000000        1.6234751696826943     
   3.8247216499999999        7.7499999999999999E-002   1.7879807653248330       -5.3908714337074885E-002   6185.5606256875863        0.0000000000000000        1.7887932710777541     
   4.3071938000000003        7.7499999999999999E-002   1.9774169745453278       -5.4680142177630717E-002   6184.1751732181528        0.0000000000000000        1.9781728461306316     
   4.8379131500000003        7.7499999999999999E-002   2.2166195207324497       -6.6518696614390693E-002   6182.1322692807635        0.0000000000000000        2.2176173783345567     
   5.4217044500000000        7.7499999999999999E-002   2.5694526938182340       -7.7857010602116361E-002   6178.8754756001508        0.0000000000000000        2.5706319961965924     
   6.0638749000000001        7.7499999999999999E-002   3.0831319257910748       -9.2735666677192394E-002   6173.3503258670653        0.0000000000000000        3.0845262805990559     
   6.7702624000000000        7.7499999999999999E-002   3.8203443864229971      -0.11171284334134571        6163.9430500933295        0.0000000000000000        3.8219773665265362     
   7.5472886500000005        7.7499999999999999E-002   4.3798684117612563       -4.5645156931253886E-002   6150.4138418578486        0.0000000000000000        4.3801062526718857     
   8.4020175500000001        7.7499999999999999E-002   3.3044643717094644       0.13915006249654890        6142.7352509228876        0.0000000000000000        3.3073928590039041     
   9.3422193000000000        7.7499999999999999E-002  0.99219606016643536       0.12873405151448453        6140.4799541479579        0.0000000000000000        1.0005126075313246     
   10.334705950000000        7.7499999999999999E-002  -1.5207144717290089       0.17718391949010193        6137.7227673061825        0.0000000000000000        1.5310018438434074     
   11.334706000000001        7.7499999999999999E-002  -4.3019527823068167       0.19349835789320272        6136.8086084143406        0.0000000000000000        4.3063022833638520     
   12.334706000000001        7.7499999999999999E-002  -6.6779988134551251       0.16441972834608298        6140.1903334654098        0.0000000000000000        6.6800226047205449     
   13.334706000000001        7.7499999999999999E-002  -7.4100092231853676        1.4412086239548198E-002   6167.3636893805278        0.0000000000000000        7.4100232385547882     
   14.334706000000001        7.7499999999999999E-002  -5.8537508104078171      -0.12985117448766348        6210.8153835731055        0.0000000000000000        5.8551908489703388     
   15.334706000000001        7.7499999999999999E-002  -2.4837662319913352      -0.24892525056186288        6247.9385697840371        0.0000000000000000        2.4962088205011459     