 VARIABLES = "X","Y","UA","VA","PA","VT","UMAG"
 ZONE I=         132 ,J=         172 ,F=POINT
   5.0000000000000003E-002   2.5000000000000001E-002   2.9632382340460305E-002  -2.9681273918455514E-002   7825.8037068761523        0.0000000000000000        4.1941102806121004E-002
  0.15500000000000000        2.5000000000000001E-002   9.0034785660207811E-002  -2.8554297954700412E-002   7825.8018578291521        0.0000000000000000        9.4454277619202456E-002
  0.27050000000000002        2.5000000000000001E-002  0.15113544862867617       -2.6550552157809194E-002   7825.7936960536481        0.0000000000000000       0.15344984735109959     
  0.39755000000000001        2.5000000000000001E-002  0.20955972079228097       -2.3784833443798541E-002   7825.7772645447030        0.0000000000000000       0.21090517983323215     
  0.53730500000000003        2.5000000000000001E-002  0.26156085798132883       -2.0392404476240255E-002   7825.7500757831558        0.0000000000000000       0.26235459322880450     
  0.69103550000000002        2.5000000000000001E-002  0.30395614842342750       -1.6799300763534229E-002   7825.7089981906101        0.0000000000000000       0.30442003329371797     
  0.86013905000000002        2.5000000000000001E-002  0.33482998331095970       -1.3296688847501160E-002   7825.6500900388783        0.0000000000000000       0.33509389677868623     
   1.0461529500000000        2.5000000000000001E-002  0.35431850828316674       -1.0365128548065745E-002   7825.5690812129760        0.0000000000000000       0.35447008505912941     
   1.2507682500000001        2.5000000000000001E-002  0.36681525882338739       -8.6729074313857072E-003   7825.4613097355978        0.0000000000000000       0.36691777475203086     
   1.4758450999999999        2.5000000000000001E-002  0.38404995734108294       -9.1071836294914534E-003   7825.3206431186982        0.0000000000000000       0.38415792394189774     
   1.7234296000000000        2.5000000000000001E-002  0.41398626029927077       -9.5932844079558311E-003   7825.1359891279208        0.0000000000000000       0.41409739774877535     
   1.9957725499999999        2.5000000000000001E-002  0.45987929981417353       -1.0741218312851346E-002   7824.8969171510025        0.0000000000000000       0.46000472189795927     
   2.2953498000000003        2.5000000000000001E-002  0.52413131566032445       -1.1636144291031688E-002   7824.5835343073986        0.0000000000000000       0.52426046571316476     
   2.6248847500000001        2.5000000000000001E-002  0.60335342350617127       -1.2071775286865817E-002   7824.1736036425855        0.0000000000000000       0.60347417626207822     
   2.9873732500000001        2.5000000000000001E-002  0.69492030497692758       -1.2384606507493737E-002   7823.6257973069014        0.0000000000000000       0.69503065309925105     
   3.3861106000000003        2.5000000000000001E-002  0.81836513519737153       -1.5134621445399841E-002   7822.8869285115152        0.0000000000000000       0.81850507101233516     
   3.8247216499999999        2.5000000000000001E-002  0.99672906158969388       -1.7974208002730967E-002   7821.8210036978671        0.0000000000000000       0.99689111460118707     
   4.3071938000000003        2.5000000000000001E-002   1.2299167670593083       -2.0135891604177520E-002   7820.1918789459951        0.0000000000000000        1.2300815859219729     
   4.8379131500000003        2.5000000000000001E-002   1.5062154517248576       -2.1195706375565095E-002   7817.6373433279759        0.0000000000000000        1.5063645790390441     
   5.4217044500000000        2.5000000000000001E-002   1.8468990450147575       -2.4592632227547540E-002   7813.7581490658777        0.0000000000000000        1.8470627710059837     
   6.0638749000000001        2.5000000000000001E-002   2.2459962288505659       -2.4763791425348115E-002   7807.6090968220979        0.0000000000000000        2.2461327443801538     
   6.7702624000000000        2.5000000000000001E-002   2.6491280701558191       -2.3426581425497455E-002   7797.8905920499428        0.0000000000000000        2.6492316502723541     
   7.5472886500000005        2.5000000000000001E-002   2.8785370351087591       -1.1771315020167258E-002   7784.3862575862813        0.0000000000000000        2.8785611034595093     
   8.4020175500000001        2.5000000000000001E-002   2.2749076723841886        2.8368347234164731E-002   7772.7392779312650        0.0000000000000000        2.2750845437032106     
   9.3422193000000000        2.5000000000000001E-002  0.80470747635715889        3.9875795141066359E-002   7767.0557133251896        0.0000000000000000       0.80569485634652016     
   10.334705950000000        2.5000000000000001E-002  -1.0759091251874391        5.4516853626785135E-002   7760.3850962012084        0.0000000000000000        1.0772894378907485     
   11.334706000000001        2.5000000000000001E-002  -3.2251736349755871        6.1936130034985326E-002   7749.9139432176671        0.0000000000000000        3.2257682898722519     
   12.334706000000001        2.5000000000000001E-002  -4.9344118767895999        3.9917647839852480E-002   7752.4759411665345        0.0000000000000000        4.9345733339784630     
   13.334706000000001        2.5000000000000001E-002  -5.3019656696101274       -2.3175813984207603E-003   7791.5629743525524        0.0000000000000000        5.3019661761376700     
   14.334706000000001        2.5000000000000001E-002  -4.0686438550809765       -4.3027306391760341E-002   7845.4580227737215        0.0000000000000000        4.0688713629928781     
   15.334706000000001        2.5000000000000001E-002  -1.5394486846015305       -7.4537359431372768E-002   7887.8803681746804        0.0000000000000000        1.5412521112629123     
   16.334706000000001        2.5000000000000001E-002   1.8367410013655885       -9.5279469635082686E-002   7902.0844512728800        0.0000000000000000        1.8392106142123603     
   17.334706000000001        2.5000000000000001E-002   5.5812096255344130      -0.10350556928916506        7885.9859353385191        0.0000000000000000        5.5821693173023563     
   18.334706000000001        2.5000000000000001E-002   9.3133713938735170      -0.10454724745644976        7840.6590918910260        0.0000000000000000        9.3139581729344396     
   19.334706000000001        2.5000000000000001E-002   12.821496874564851      -0.10082786801011039        7767.5369305446175        0.0000000000000000        12.821893322105113     
   20.334706000000001        2.5000000000000001E-002   16.001396633497279       -9.5104161318781008E-002   7668.8391439613360        0.0000000000000000        16.001679256378004     
   21.334706000000001        2.5000000000000001E-002   18.852864925347987       -8.9914308724656430E-002   7547.7689891524851        0.0000000000000000        18.853079336711279     
   22.334706000000001        2.5000000000000001E-002   21.425455104968350       -8.5464377188876492E-002   7407.5724216266935        0.0000000000000000        21.425625559473932     
   23.334706000000001        2.5000000000000001E-002   23.767925631613693       -8.1774925316096952E-002   7250.8227582920963        0.0000000000000000        23.768066306881796     
   24.334706000000001        2.5000000000000001E-002   25.922653845794514       -7.8720433080253463E-002   7079.3921705644634        0.0000000000000000        25.922773372374134     
   25.334706000000001        2.5000000000000001E-002   27.922718381705899       -7.6125295170912169E-002   6894.6554909199403        0.0000000000000000        27.922822151147642     
   26.334706000000001        2.5000000000000001E-002   29.791877430152535       -7.3819474699938242E-002   6697.7213546944040        0.0000000000000000        29.791968886397505     
   27.334706000000001        2.5000000000000001E-002   31.545773707029014       -7.1653285879461293E-002   6489.6193468039610        0.0000000000000000        31.545855083805549     
   28.334706000000001        2.5000000000000001E-002   33.193278838346444       -6.9498101143378871E-002   6271.4345676957446        0.0000000000000000        33.193351593749618     
   29.334706000000001        2.5000000000000001E-002   34.737706104078740       -6.7245830025836686E-002   6044.4028280202774        0.0000000000000000        34.737771191816627     
   30.334706000000001        2.5000000000000001E-002   36.177910905376763       -6.4808892622782208E-002   5809.9771796312016        0.0000000000000000        36.177968954460972     
   31.334706000000001        2.5000000000000001E-002   37.509323996010259       -6.2120877077564113E-002   5569.8699911991398        0.0000000000000000        37.509375436563055     
   32.334705999999997        2.5000000000000001E-002   38.724955857372336       -5.9137673903511052E-002   5326.0692622947545        0.0000000000000000        38.725001012523045     
   33.334705999999997        2.5000000000000001E-002   39.816401916670557       -5.5838928644263382E-002   5080.8252899395211        0.0000000000000000        39.816441071193175     
   34.334705999999997        2.5000000000000001E-002   40.774859206726390       -5.2229240247378267E-002   4836.6042639347597        0.0000000000000000        40.774892657392691     
   35.334705999999997        2.5000000000000001E-002   41.592130569661215       -4.8338126281367980E-002   4596.0083001436060        0.0000000000000000        41.592158658792876     
   36.334705999999997        2.5000000000000001E-002   42.261564753174298       -4.4218277628383436E-002   4361.6667024050657        0.0000000000000000        42.261587885961177     
   37.334705999999997        2.5000000000000001E-002   42.778828951649132       -3.9939914026231912E-002   4136.1076594342076        0.0000000000000000        42.778847596343532     
   38.334705999999997        2.5000000000000001E-002   43.142450501883125       -3.5585480689915135E-002   3921.6264747730861        0.0000000000000000        43.142465177987589     
   39.334705999999997        2.5000000000000001E-002   43.354064174836743       -3.1240421252449354E-002   3720.1689076734147        0.0000000000000000        43.354075430572642     
   40.334705999999997        2.5000000000000001E-002   43.418220221754510       -2.6980112548564472E-002   3533.2451050333757        0.0000000000000000        43.418228604484149     
   41.334705999999997        2.5000000000000001E-002   43.341815671076290       -2.2863307866158866E-002   3361.8881386960456        0.0000000000000000        43.341821701405223     
   42.334705999999997        2.5000000000000001E-002   43.133164616517810       -1.8919556192549970E-002   3206.6532403394522        0.0000000000000000        43.133168765872398     
   43.334705999999997        2.5000000000000001E-002   42.800959155705236       -1.5155088689967545E-002   3067.6599463196944        0.0000000000000000        42.800961838784197     
   44.334705999999997        2.5000000000000001E-002   42.353463560490425       -1.1557588318136650E-002   2944.6546300099449        0.0000000000000000        42.353465137431648     
   45.334705999999997        2.5000000000000001E-002   41.798238850435709       -8.1175200999718047E-003   2837.0928357283419        0.0000000000000000        41.798239638676243     
   46.334705999999997        2.5000000000000001E-002   41.141992353757381       -4.8130477284198808E-003   2744.1742618489438        0.0000000000000000        41.141992635287600     
   47.334705999999997        2.5000000000000001E-002   40.392506352837344       -1.7302036224554327E-003   2664.8427218738179        0.0000000000000000        40.392506389893782     
   48.334705999999997        2.5000000000000001E-002   39.562445523038519        9.6026868618782370E-004   2597.7515800738511        0.0000000000000000        39.562445534692451     
   49.334705999999997        2.5000000000000001E-002   38.673038416281230        2.9824233402288443E-003   2541.6698820075194        0.0000000000000000        38.673038531281875     
   50.334705999999997        2.5000000000000001E-002   37.738134745883279        4.9634483767447279E-003   2495.5344423870733        0.0000000000000000        37.738135072288117     
   51.334705999999997        2.5000000000000001E-002   36.757869060686886        6.9559655711075178E-003   2457.8856706633478        0.0000000000000000        36.757869718851488     
   52.334705999999997        2.5000000000000001E-002   35.734118229628123        8.8206051582578326E-003   2427.4028862230007        0.0000000000000000        35.734119318266629     
   53.334705999999997        2.5000000000000001E-002   34.682319450647753        1.0011860751089561E-002   2403.5994462491908        0.0000000000000000        34.682320895726328     
   54.334705999999997        2.5000000000000001E-002   33.623178828927259        1.0796655336773238E-002   2385.9362526258546        0.0000000000000000        33.623180562370784     
   55.334705999999997        2.5000000000000001E-002   32.556509333624533        1.1945708620218697E-002   2372.6648810697802        0.0000000000000000        32.556511525197777     
   56.334705999999997        2.5000000000000001E-002   31.470175033723670        1.3293983347420966E-002   2361.8666971663774        0.0000000000000000        31.470177841620117     
   57.334705999999997        2.5000000000000001E-002   30.379822492674386        1.3618236080801958E-002   2352.2409877572281        0.0000000000000000        30.379825544969123     
   58.334705999999997        2.5000000000000001E-002   29.303437002285328        1.4012433998532393E-002   2341.9308247663871        0.0000000000000000        29.303440352545834     
   59.334705999999997        2.5000000000000001E-002   28.235462338621389        1.4557104586989059E-002   2329.3005509771456        0.0000000000000000        28.235466091159196     
   60.334705999999997        2.5000000000000001E-002   27.191975715918034        1.4088600744187286E-002   2314.2013965075848        0.0000000000000000        27.191979365683309     
   61.334705999999997        2.5000000000000001E-002   26.189045278312243        1.3760699668796637E-002   2295.8129605079107        0.0000000000000000        26.189048893504019     
   62.334705999999997        2.5000000000000001E-002   25.245453181392342        1.2273183255114409E-002   2274.7414161767447        0.0000000000000000        25.245456164721997     
   63.334705999999997        2.5000000000000001E-002   24.357105954337626        1.2067939141048048E-002   2251.7794816515884        0.0000000000000000        24.357108943919936     
   64.334705999999997        2.5000000000000001E-002   23.512886631280715        1.1064038155291996E-002   2228.3204204572207        0.0000000000000000        23.512889234383756     
   65.334705999999997        2.5000000000000001E-002   22.742838280514711        9.2805634984282383E-003   2204.6971240213306        0.0000000000000000        22.742840174052670     
   66.334705999999997        2.5000000000000001E-002   22.066628590622578        7.2017426591973865E-003   2181.8736859754022        0.0000000000000000        22.066629765815602     
   67.334705999999997        2.5000000000000001E-002   21.483651990881036        5.3539196269927663E-003   2160.1717036952182        0.0000000000000000        21.483652658003528     
   68.334705999999997        2.5000000000000001E-002   20.993647154214724        3.1980358947027833E-003   2140.3244483014369        0.0000000000000000        20.993647397798732     
   69.334705999999997        2.5000000000000001E-002   20.608618019330713        6.5957143824709342E-004   2123.3928940657925        0.0000000000000000        20.608618029885388     
   70.334705999999997        2.5000000000000001E-002   20.317792163166430       -1.0447642060106197E-003   2108.7129392787792        0.0000000000000000        20.317792190027919     
   71.334705999999997        2.5000000000000001E-002   20.089578452140636       -2.0721662109612826E-003   2095.5955526105713        0.0000000000000000        20.089578559008800     
   72.334705999999997        2.5000000000000001E-002   19.919411034586929       -3.6011992309411666E-003   2083.7147523365620        0.0000000000000000        19.919411360114523     
   73.334705999999997        2.5000000000000001E-002   19.816375775453160       -5.1352308061116394E-003   2073.1652436230752        0.0000000000000000        19.816376440826971     
   74.334705999999997        2.5000000000000001E-002   19.773101268793006       -6.3465344925354335E-003   2062.9654882466752        0.0000000000000000        19.773102287310497     
   75.334705999999997        2.5000000000000001E-002   19.789464603045424       -7.9207127135991120E-003   2051.5099449631853        0.0000000000000000        19.789466188173893     
   76.334705999999997        2.5000000000000001E-002   19.868689406123874       -9.3386814457694749E-003   2037.5838036034111        0.0000000000000000        19.868691600807292     
   77.334705999999997        2.5000000000000001E-002   19.918104534180046       -6.2941158853780854E-003   2018.8360293201711        0.0000000000000000        19.918105528649519     
   78.334705999999997        2.5000000000000001E-002   19.888799565318322       -5.2352396867485556E-003   1997.0531662779681        0.0000000000000000        19.888800254342666     
   79.334705999999997        2.5000000000000001E-002   19.910465048587234       -8.6703332356465289E-003   1975.8995935679620        0.0000000000000000        19.910466936405392     
   80.334705999999997        2.5000000000000001E-002   20.003917709423003       -8.6949714855050243E-003   1955.1730502470771        0.0000000000000000        20.003919599115978     
   81.334705999999997        2.5000000000000001E-002   20.076212328375789       -7.5018146475263302E-003   1930.5861741911124        0.0000000000000000        20.076213729965396     
   82.334705999999997        2.5000000000000001E-002   20.101656837249703       -6.2237913433753180E-003   1902.7638314410606        0.0000000000000000        20.101657800741869     
   83.334705999999997        2.5000000000000001E-002   20.083189939664340       -5.1532491690260574E-003   1871.9740136352032        0.0000000000000000        20.083190600813705     
   84.334705999999997        2.5000000000000001E-002   20.037245003611844       -4.6792028928086538E-003   1838.8893935469571        0.0000000000000000        20.037245549967878     
   85.334705999999997        2.5000000000000001E-002   19.995475625248055       -5.1884241167081315E-003   1804.1597772555735        0.0000000000000000        19.995476298393942     
   86.334705999999997        2.5000000000000001E-002   19.965808746637741       -5.1194838895618714E-003   1767.4484423774870        0.0000000000000000        19.965809402987684     
   87.334705999999997        2.5000000000000001E-002   19.930063306855857       -4.7252023020943048E-003   1728.0745662735405        0.0000000000000000        19.930063867003010     
   88.334705999999997        2.5000000000000001E-002   19.891145616641985       -4.8025582703648479E-003   1685.9483363514169        0.0000000000000000        19.891146196411650     
   89.334705999999997        2.5000000000000001E-002   19.878687636549834       -5.8999391339117080E-003   1641.0742776584007        0.0000000000000000        19.878688512092566     
   90.334705999999997        2.5000000000000001E-002   19.893327774139017       -6.0274147179106780E-003   1592.7714838733268        0.0000000000000000        19.893328687252392     
   91.334705999999997        2.5000000000000001E-002   19.934036694639950       -7.0908235333078150E-003   1540.3130343787361        0.0000000000000000        19.934037955793865     
   92.334705999999997        2.5000000000000001E-002   19.948713985216713       -4.6158144516375357E-003   1482.0504859365251        0.0000000000000000        19.948714519229654     
   93.334705999999997        2.5000000000000001E-002   19.879031828162738       -2.7355542689704799E-003   1420.3065591756977        0.0000000000000000        19.879032016382595     
   94.334705999999997        2.5000000000000001E-002   19.849114953290531       -6.4576441485296211E-003   1357.1692672231702        0.0000000000000000        19.849116003744594     
   95.334705999999997        2.5000000000000001E-002   19.942900161182699       -8.8202879952257191E-003   1293.3159704489162        0.0000000000000000        19.942902111688291     
   96.334705999999997        2.5000000000000001E-002   20.125740984594856       -1.0867700559489372E-002   1226.4196350750415        0.0000000000000000        20.125743918819911     
   97.334705999999997        2.5000000000000001E-002   20.345051189211688       -1.0634392476109877E-002   1156.9960377059531        0.0000000000000000        20.345053968518915     
   98.334705999999997        2.5000000000000001E-002   20.546983261305243       -9.9945667307087781E-003   1085.6491539123951        0.0000000000000000        20.546985692108759     
   99.334705999999997        2.5000000000000001E-002   20.736948336023332       -1.0024467144809094E-002   1011.9529516737111        0.0000000000000000        20.736950758991600     
   100.33470800000001        2.5000000000000001E-002   20.881884079241388       -7.7175113481710057E-003   938.04792530008729        0.0000000000000000        20.881885505357420     
   101.33471000000000        2.5000000000000001E-002   20.954558058788038       -6.3572545772876852E-003   864.78204789426673        0.0000000000000000        20.954559023129178     
   102.33471000000000        2.5000000000000001E-002   20.974371354908417       -4.9906780703909658E-003   791.18594329299015        0.0000000000000000        20.974371948653680     
   103.33471000000000        2.5000000000000001E-002   20.933620752664460       -3.2193085989165133E-003   718.35395232859480        0.0000000000000000        20.933621000207584     
   104.33471000000000        2.5000000000000001E-002   20.829354595823922       -1.6773856700433515E-003   648.28498735541314        0.0000000000000000        20.829354663363766     
   105.33471000000000        2.5000000000000001E-002   20.653374635078439        5.3351997436895183E-004   581.94618021864358        0.0000000000000000        20.653374641969410     
   106.33471000000000        2.5000000000000001E-002   20.384678677094364        3.1612210712694817E-003   520.70807022043198        0.0000000000000000        20.384678922212739     
   107.33471000000000        2.5000000000000001E-002   20.017558052378497        5.6984955946204584E-003   465.16406423730149        0.0000000000000000        20.017558863487707     
   108.33471000000000        2.5000000000000001E-002   19.495888162142364        1.1186503893783152E-002   416.25337000321571        0.0000000000000000        19.495891371482148     
   109.33471000000000        2.5000000000000001E-002   18.798848188690066        1.4835120224051130E-002   374.31181465502692        0.0000000000000000        18.798854042260338     
   110.33471000000000        2.5000000000000001E-002   18.061753526955421        1.3599842173719597E-002   336.83389558410255        0.0000000000000000        18.061758647047462     
   111.33471000000000        2.5000000000000001E-002   17.431493210030805        9.8816926590788532E-003   306.02325439716213        0.0000000000000000        17.431496010933770     
   112.33471000000000        2.5000000000000001E-002   17.011685553984336        3.3877354614600631E-003   279.13277259856949        0.0000000000000000        17.011685891303980     
   113.33471000000000        2.5000000000000001E-002   16.765544003480080        1.4182703237103911E-003   249.97542067161447        0.0000000000000000        16.765544063468912     
   114.33471000000000        2.5000000000000001E-002   16.695865671715371       -5.2962916043030892E-003   216.80552932693288        0.0000000000000000        16.695866511764777     
   115.33471000000000        2.5000000000000001E-002   16.864885040068895       -1.0470221616870872E-002   175.25091094365220        0.0000000000000000        16.864888290180883     
   116.33471000000000        2.5000000000000001E-002   17.969992287851547       -5.2307990085263267E-002   124.06158759774118        0.0000000000000000        17.970068418102109     
   5.0000000000000003E-002   7.7499999999999999E-002   1.5389218076183106E-002  -7.6302826272719310E-002   7825.8016218889998        0.0000000000000000        7.7839253145190856E-002
  0.15500000000000000        7.7499999999999999E-002   4.8698648179991609E-002  -7.4712993397092711E-002   7825.7997886451176        0.0000000000000000        8.9182900361631096E-002
  0.27050000000000002        7.7499999999999999E-002   8.7938292624104700E-002  -7.1734388933013440E-002   7825.7916667352647        0.0000000000000000       0.11348553152378284     
  0.39755000000000001        7.7499999999999999E-002  0.13456120990137388       -6.7335639816173659E-002   7825.7753061150734        0.0000000000000000       0.15046862662885932     
  0.53730500000000003        7.7499999999999999E-002  0.18934904514430867       -6.1553527539810582E-002   7825.7482282568089        0.0000000000000000       0.19910273139677331     
  0.69103550000000002        7.7499999999999999E-002  0.25201857436821729       -5.4961969378658243E-002   7825.7072940725211        0.0000000000000000       0.25794220264347828     
  0.86013905000000002        7.7499999999999999E-002  0.32131620036695707       -4.8079038290664601E-002   7825.6485521021641        0.0000000000000000       0.32489335872130981     
   1.0461529500000000        7.7499999999999999E-002  0.39593461377916805       -4.2007045590001048E-002   7825.5668037480964        0.0000000000000000       0.39815676594484661     
   1.2507682500000001        7.7499999999999999E-002  0.47593189791936114       -3.8456727547933507E-002   7825.4553084332965        0.0000000000000000       0.47748307964871506     
   1.4758450999999999        7.7499999999999999E-002  0.56209398890848972       -3.9108717076536098E-002   7825.3067344524916        0.0000000000000000       0.56345287657303689     
   1.7234296000000000        7.7499999999999999E-002  0.65551052108868335       -3.9983587495174708E-002   7825.1116230092666        0.0000000000000000       0.65672881048949072     
   1.9957725499999999        7.7499999999999999E-002  0.75875245099078570       -4.2443583761362001E-002   7824.8553882994938        0.0000000000000000       0.75993864205410189     
   2.2953498000000003        7.7499999999999999E-002  0.87272949761962471       -4.4152944678801265E-002   7824.5216952932615        0.0000000000000000       0.87384567203781005     
   2.6248847500000001        7.7499999999999999E-002  0.99973004804184917       -4.5375227965938326E-002   7824.0838668102770        0.0000000000000000        1.0007592519036328     
   2.9873732500000001        7.7499999999999999E-002   1.1444706637254458       -4.6489591339395064E-002   7823.4965212102588        0.0000000000000000        1.1454145023663123     
   3.3861106000000003        7.7499999999999999E-002   1.3187579459094316       -5.3760680722478194E-002   7822.6833976714361        0.0000000000000000        1.3198532989279559     
   3.8247216499999999        7.7499999999999999E-002   1.5370063852470031       -6.1505606209761143E-002   7821.5025818143740        0.0000000000000000        1.5382365123365422     
   4.3071938000000003        7.7499999999999999E-002   1.8279204288377549       -7.0412752115818031E-002   7819.7089407696731        0.0000000000000000        1.8292760999430691     
   4.8379131500000003        7.7499999999999999E-002   2.1855283202509486       -7.3400863087381613E-002   7816.9134873416942        0.0000000000000000        2.1867605550953457     
   5.4217044500000000        7.7499999999999999E-002   2.6115953833261756       -8.3853425429948503E-002   7812.6260879354195        0.0000000000000000        2.6129412245909647     
   6.0638749000000001        7.7499999999999999E-002   3.1187438453225740       -8.5660928869668432E-002   7805.8859666739763        0.0000000000000000        3.1199200258135225     
   6.7702624000000000        7.7499999999999999E-002   3.6510349070982442       -8.1256183561917730E-002   7795.2536026098742        0.0000000000000000        3.6519390000679000     
   7.5472886500000005        7.7499999999999999E-002   4.0649598250699555       -4.8530421864298387E-002   7781.1199998828779        0.0000000000000000        4.0652495103350166     
   8.4020175500000001        7.7499999999999999E-002   3.2904491760953358       0.10278772758824831        7770.9265614052783        0.0000000000000000        3.2920542367052872     
   9.3422193000000000        7.7499999999999999E-002   1.0989557300541899       0.14722899159057534        7766.9654343177253        0.0000000000000000        1.1087741305530694     
   10.334705950000000        7.7499999999999999E-002  -1.7567105066210098       0.20111640910151735        7762.8600829033894        0.0000000000000000        1.7681854015013623     
   11.334706000000001        7.7499999999999999E-002  -4.9338599503339822       0.22317387220158122        7756.5828899319013        0.0000000000000000        4.9389047962825821     
   12.334706000000001        7.7499999999999999E-002  -7.2043288366188207       0.13343805366565320        7761.4507050766570        0.0000000000000000        7.2055644956036282     
   13.334706000000001        7.7499999999999999E-002  -7.4107486493052326       -1.5543494728757953E-002   7798.5204789072814        0.0000000000000000        7.4107649499500194     
   14.334706000000001        7.7499999999999999E-002  -5.4268419523116043      -0.15857079069946828        7847.9846285846306        0.0000000000000000        5.4291581549106009     
   15.334706000000001        7.7499999999999999E-002  -1.7667779789895539      -0.26428637657842291        7886.0029858545458        0.0000000000000000        1.7864354776726095     